 Fermi distribution function

Calculation with static geometry


********************************************************************************
 iSCC Total electronic   Diff electronic      SCC error    
    2   -0.34684512E+01    0.00000000E+00    0.14801444E+00
********************************************************************************

 Total charge:    -0.00000000

 Atomic gross charges (e)
 Atom           Charge
    1      -0.00000000
    2      -0.00000000

Nr. of electrons (up):      8.00000000
Atom populations (up)
 Atom       Population
    1       4.00000000
    2       4.00000000

l-shell populations (up)
 Atom Sh.   l       Population
    1   1   0       1.22274453
    1   2   1       2.24537110
    1   3   2       0.53188437
    2   1   0       1.22274453
    2   2   1       2.24537110
    2   3   2       0.53188437

Orbital populations (up)
 Atom Sh.   l   m       Population  Label
    1   1   0   0       1.22274453  s
    1   2   1  -1       0.80889205  p_y
    1   2   1   0       0.80889205  p_z
    1   2   1   1       0.62758700  p_x
    1   3   2  -2       0.01618194  d_xy
    1   3   2  -1       0.15300248  d_yz
    1   3   2   0       0.18274711  d_z2
    1   3   2   1       0.02695036  d_xz
    1   3   2   2       0.15300248  d_x2-y2
    2   1   0   0       1.22274453  s
    2   2   1  -1       0.80889205  p_y
    2   2   1   0       0.80889205  p_z
    2   2   1   1       0.62758700  p_x
    2   3   2  -2       0.01618194  d_xy
    2   3   2  -1       0.15300248  d_yz
    2   3   2   0       0.18274711  d_z2
    2   3   2   1       0.02695036  d_xz
    2   3   2   2       0.15300248  d_x2-y2

Fermi level:                        -0.3611166764 H           -9.8265 eV
Band energy:                        -3.9475561517 H         -107.4185 eV
TS:                                  0.0000000000 H            0.0000 eV
Band free energy (E-TS):            -3.9475561517 H         -107.4185 eV
Extrapolated E(0K):                 -3.9475561517 H         -107.4185 eV
Input / Output electrons (q):      8.0000000000      8.0000000000

Energy H0:                          -3.4944836014 H          -95.0897 eV
Energy SCC:                          0.0260324449 H            0.7084 eV
Total Electronic energy:            -3.4684511565 H          -94.3814 eV
Repulsive energy:                    0.0000000000 H            0.0000 eV
Total energy:                       -3.4684511565 H          -94.3814 eV
Extrapolated to 0:                  -3.4684511565 H          -94.3814 eV
Total Mermin free energy:           -3.4684511565 H          -94.3814 eV
Force related energy:               -3.4684511565 H          -94.3814 eV

