|===============================================================================
|
|  DFTB+ release 22.2
|
|  Copyright (C) 2006 - 2022  DFTB+ developers group
|
|===============================================================================
|
|  When publishing results obtained with DFTB+, please cite the following
|  reference:
|
|  * DFTB+, a software package for efficient approximate density functional
|    theory based atomistic simulations, J. Chem. Phys. 152, 124101 (2020).
|    [doi: 10.1063/1.5143190]
|
|  You should also cite additional publications crediting the parametrization
|  data you use. Please consult the documentation of the SK-files for the
|  references.
|
|===============================================================================

Reading input file 'dftb_in.hsd'
Parser version: 12

--------------------------------------------------------------------------------
Using parameter file '../../params/gfn1-si-xtb.toml' for xTB Hamiltonian


Processed input in HSD format written to 'dftb_pin.hsd'

Starting initialization...
--------------------------------------------------------------------------------
WARNING!
-> Dipole printed for extended system : value printed is not well defined
OpenMP threads:              24
Chosen random seed:          34901034
Mode:                        Static calculation
Self consistent charges:     Yes
SCC-tolerance:                 0.100000E-04
Max. scc iterations:                      1
Shell resolved Hubbard:      Yes
Spin polarisation:           No
Nr. of up electrons:             4.000000
Nr. of down electrons:           4.000000
Periodic boundaries:         Yes
Electronic solver:           Relatively robust
Mixer:                       Broyden mixer
Mixing parameter:                  0.200000
Maximal SCC-cycles:                       1
Nr. of chrg. vec. in memory:              1
tblite library version:      0.3.0
-> parametrization:          GFN1-xTB
-> repulsion:                Yes
-> dispersion:               Yes
-> halogen bonding:          Yes
-> electrostatics:           Yes
   -> isotropic:             Yes
   -> anisotropic:           No
   -> third-order:           Yes
Electronic temperature:              0.950045E-03 H      0.258520E-01 eV
Initial charges:             Read in from 'charges'
Included shells:            Si:  s, p, d
K-points and weights:           1:  0.500000  0.500000  0.500000     0.016393
                                2:  0.483333  0.483333  0.483333     0.016393
                                3:  0.466667  0.466667  0.466667     0.016393
                                4:  0.450000  0.450000  0.450000     0.016393
                                5:  0.433333  0.433333  0.433333     0.016393
                                6:  0.416667  0.416667  0.416667     0.016393
                                7:  0.400000  0.400000  0.400000     0.016393
                                8:  0.383333  0.383333  0.383333     0.016393
                                9:  0.366667  0.366667  0.366667     0.016393
                               10:  0.350000  0.350000  0.350000     0.016393
                               11:  0.333333  0.333333  0.333333     0.016393
                               12:  0.316667  0.316667  0.316667     0.016393
                               13:  0.300000  0.300000  0.300000     0.016393
                               14:  0.283333  0.283333  0.283333     0.016393
                               15:  0.266667  0.266667  0.266667     0.016393
                               16:  0.250000  0.250000  0.250000     0.016393
                               17:  0.233333  0.233333  0.233333     0.016393
                               18:  0.216667  0.216667  0.216667     0.016393
                               19:  0.200000  0.200000  0.200000     0.016393
                               20:  0.183333  0.183333  0.183333     0.016393
                               21:  0.166667  0.166667  0.166667     0.016393
                               22:  0.150000  0.150000  0.150000     0.016393
                               23:  0.133333  0.133333  0.133333     0.016393
                               24:  0.116667  0.116667  0.116667     0.016393
                               25:  0.100000  0.100000  0.100000     0.016393
                               26:  0.083333  0.083333  0.083333     0.016393
                               27:  0.066667  0.066667  0.066667     0.016393
                               28:  0.050000  0.050000  0.050000     0.016393
                               29:  0.033333  0.033333  0.033333     0.016393
                               30:  0.016667  0.016667  0.016667     0.016393
                               31:  0.000000  0.000000  0.000000     0.016393
                               32:  0.016667  0.000000  0.016667     0.016393
                               33:  0.033333  0.000000  0.033333     0.016393
                               34:  0.050000  0.000000  0.050000     0.016393
                               35:  0.066667  0.000000  0.066667     0.016393
                               36:  0.083333  0.000000  0.083333     0.016393
                               37:  0.100000  0.000000  0.100000     0.016393
                               38:  0.116667  0.000000  0.116667     0.016393
                               39:  0.133333  0.000000  0.133333     0.016393
                               40:  0.150000  0.000000  0.150000     0.016393
                               41:  0.166667  0.000000  0.166667     0.016393
                               42:  0.183333  0.000000  0.183333     0.016393
                               43:  0.200000  0.000000  0.200000     0.016393
                               44:  0.216667  0.000000  0.216667     0.016393
                               45:  0.233333  0.000000  0.233333     0.016393
                               46:  0.250000  0.000000  0.250000     0.016393
                               47:  0.266667  0.000000  0.266667     0.016393
                               48:  0.283333  0.000000  0.283333     0.016393
                               49:  0.300000  0.000000  0.300000     0.016393
                               50:  0.316667  0.000000  0.316667     0.016393
                               51:  0.333333  0.000000  0.333333     0.016393
                               52:  0.350000  0.000000  0.350000     0.016393
                               53:  0.366667  0.000000  0.366667     0.016393
                               54:  0.383333  0.000000  0.383333     0.016393
                               55:  0.400000  0.000000  0.400000     0.016393
                               56:  0.416667  0.000000  0.416667     0.016393
                               57:  0.433333  0.000000  0.433333     0.016393
                               58:  0.450000  0.000000  0.450000     0.016393
                               59:  0.466667  0.000000  0.466667     0.016393
                               60:  0.483333  0.000000  0.483333     0.016393
                               61:  0.500000  0.000000  0.500000     0.016393

K-points in absolute space:     1:  0.048753  0.048753  0.048753
                                2:  0.047128  0.047128  0.047128
                                3:  0.045503  0.045503  0.045503
                                4:  0.043878  0.043878  0.043878
                                5:  0.042253  0.042253  0.042253
                                6:  0.040628  0.040628  0.040628
                                7:  0.039003  0.039003  0.039003
                                8:  0.037378  0.037378  0.037378
                                9:  0.035752  0.035752  0.035752
                               10:  0.034127  0.034127  0.034127
                               11:  0.032502  0.032502  0.032502
                               12:  0.030877  0.030877  0.030877
                               13:  0.029252  0.029252  0.029252
                               14:  0.027627  0.027627  0.027627
                               15:  0.026002  0.026002  0.026002
                               16:  0.024377  0.024377  0.024377
                               17:  0.022752  0.022752  0.022752
                               18:  0.021126  0.021126  0.021126
                               19:  0.019501  0.019501  0.019501
                               20:  0.017876  0.017876  0.017876
                               21:  0.016251  0.016251  0.016251
                               22:  0.014626  0.014626  0.014626
                               23:  0.013001  0.013001  0.013001
                               24:  0.011376  0.011376  0.011376
                               25:  0.009751  0.009751  0.009751
                               26:  0.008126  0.008126  0.008126
                               27:  0.006500  0.006500  0.006500
                               28:  0.004875  0.004875  0.004875
                               29:  0.003250  0.003250  0.003250
                               30:  0.001625  0.001625  0.001625
                               31:  0.000000  0.000000  0.000000
                               32:  0.003250  0.000000  0.000000
                               33:  0.006500  0.000000  0.000000
                               34:  0.009751  0.000000  0.000000
                               35:  0.013001  0.000000  0.000000
                               36:  0.016251  0.000000  0.000000
                               37:  0.019501  0.000000  0.000000
                               38:  0.022752  0.000000  0.000000
                               39:  0.026002  0.000000  0.000000
                               40:  0.029252  0.000000  0.000000
                               41:  0.032502  0.000000  0.000000
                               42:  0.035752  0.000000  0.000000
                               43:  0.039003  0.000000  0.000000
                               44:  0.042253  0.000000  0.000000
                               45:  0.045503  0.000000  0.000000
                               46:  0.048753  0.000000  0.000000
                               47:  0.052004  0.000000  0.000000
                               48:  0.055254  0.000000  0.000000
                               49:  0.058504  0.000000  0.000000
                               50:  0.061754  0.000000  0.000000
                               51:  0.065004  0.000000  0.000000
                               52:  0.068255  0.000000  0.000000
                               53:  0.071505  0.000000  0.000000
                               54:  0.074755  0.000000  0.000000
                               55:  0.078005  0.000000  0.000000
                               56:  0.081255  0.000000  0.000000
                               57:  0.084506  0.000000  0.000000
                               58:  0.087756  0.000000  0.000000
                               59:  0.091006  0.000000  0.000000
                               60:  0.094256  0.000000  0.000000
                               61:  0.097507  0.000000  0.000000

Extra options:
                             Mulliken analysis
                             Eigenvector printing

--------------------------------------------------------------------------------

***  Geometry step: 0

 iSCC Total electronic   Diff electronic      SCC error    
    1    0.00000000E+00    0.00000000E+00    0.14801444E+00
WARNING!
-> SCC is NOT converged, maximal SCC iterations exceeded

--------------------------------------------------------------------------------
DFTB+ running times                          cpu [s]             wall clock [s]
--------------------------------------------------------------------------------
Pre-SCC initialisation                 +       0.23 ( 11.2%)       0.03 ( 20.8%)
SCC                                    +       1.85 ( 88.8%)       0.09 ( 79.2%)
--------------------------------------------------------------------------------
Missing                                +       0.00 (  0.0%)       0.00 (  0.0%)
Total                                  =       2.08 (100.0%)       0.12 (100.0%)
--------------------------------------------------------------------------------
Note: The following floating-point exceptions are signalling: IEEE_INVALID_FLAG IEEE_DIVIDE_BY_ZERO IEEE_OVERFLOW_FLAG IEEE_UNDERFLOW_FLAG IEEE_DENORMAL
