 Fermi distribution function

Calculation with static geometry


********************************************************************************
 iSCC Total electronic   Diff electronic      SCC error    
    5   -0.36347960E+01   -0.30905219E-04    0.29919208E-05
********************************************************************************

 Total charge:    -0.00000000

 Atomic gross charges (e)
 Atom           Charge
    1      -0.00000000
    2      -0.00000000

Nr. of electrons (up):      8.00000000
Atom populations (up)
 Atom       Population
    1       4.00000000
    2       4.00000000

l-shell populations (up)
 Atom Sh.   l       Population
    1   1   0       1.37075828
    1   2   1       2.11997422
    1   3   2       0.50926750
    2   1   0       1.37075828
    2   2   1       2.11997422
    2   3   2       0.50926750

Orbital populations (up)
 Atom Sh.   l   m       Population  Label
    1   1   0   0       1.37075828  s
    1   2   1  -1       0.70665807  p_y
    1   2   1   0       0.70665807  p_z
    1   2   1   1       0.70665807  p_x
    1   3   2  -2       0.08009970  d_xy
    1   3   2  -1       0.11635603  d_yz
    1   3   2   0       0.11635603  d_z2
    1   3   2   1       0.08009970  d_xz
    1   3   2   2       0.11635603  d_x2-y2
    2   1   0   0       1.37075828  s
    2   2   1  -1       0.70665807  p_y
    2   2   1   0       0.70665807  p_z
    2   2   1   1       0.70665807  p_x
    2   3   2  -2       0.08009970  d_xy
    2   3   2  -1       0.11635603  d_yz
    2   3   2   0       0.11635603  d_z2
    2   3   2   1       0.08009970  d_xz
    2   3   2   2       0.11635603  d_x2-y2

Fermi level:                        -0.3607652324 H           -9.8169 eV
Band energy:                        -4.1125823272 H         -111.9091 eV
TS:                                  0.0000000000 H            0.0000 eV
Band free energy (E-TS):            -4.1125823272 H         -111.9091 eV
Extrapolated E(0K):                 -4.1125823272 H         -111.9091 eV
Input / Output electrons (q):      8.0000000000      8.0000000000

Energy H0:                          -3.6569863973 H          -99.5117 eV
Energy SCC:                          0.0221904224 H            0.6038 eV
Total Electronic energy:            -3.6347959749 H          -98.9078 eV
Repulsive energy:                    0.0000000000 H            0.0000 eV
Total energy:                       -3.6347959749 H          -98.9078 eV
Extrapolated to 0:                  -3.6347959749 H          -98.9078 eV
Total Mermin free energy:           -3.6347959749 H          -98.9078 eV
Force related energy:               -3.6347959749 H          -98.9078 eV

SCC converged

Warning: dipole moment is not defined absolutely!
Dipole moment:   -0.00000000   -0.00000000   -0.00000000 au
Dipole moment:   -0.00000000   -0.00000000   -0.00000000 Debye


