|===============================================================================
|
|  DFTB+ release 22.2
|
|  Copyright (C) 2006 - 2022  DFTB+ developers group
|
|===============================================================================
|
|  When publishing results obtained with DFTB+, please cite the following
|  reference:
|
|  * DFTB+, a software package for efficient approximate density functional
|    theory based atomistic simulations, J. Chem. Phys. 152, 124101 (2020).
|    [doi: 10.1063/1.5143190]
|
|  You should also cite additional publications crediting the parametrization
|  data you use. Please consult the documentation of the SK-files for the
|  references.
|
|===============================================================================

Reading input file 'dftb_in.hsd'
Parser version: 12

--------------------------------------------------------------------------------
Using parameter file '../../params/gfn1-si-xtb.toml' for xTB Hamiltonian


Processed input in HSD format written to 'dftb_pin.hsd'

Starting initialization...
--------------------------------------------------------------------------------
WARNING!
-> Dipole printed for extended system : value printed is not well defined
OpenMP threads:              24
Chosen random seed:          34899932
Mode:                        Static calculation
Self consistent charges:     Yes
SCC-tolerance:                 0.100000E-04
Max. scc iterations:                    100
Shell resolved Hubbard:      Yes
Spin polarisation:           No
Nr. of up electrons:             4.000000
Nr. of down electrons:           4.000000
Periodic boundaries:         Yes
Electronic solver:           Relatively robust
Mixer:                       Broyden mixer
Mixing parameter:                  0.200000
Maximal SCC-cycles:                     100
Nr. of chrg. vec. in memory:            100
tblite library version:      0.3.0
-> parametrization:          GFN1-xTB
-> repulsion:                Yes
-> dispersion:               Yes
-> halogen bonding:          Yes
-> electrostatics:           Yes
   -> isotropic:             Yes
   -> anisotropic:           No
   -> third-order:           Yes
Electronic temperature:              0.950045E-03 H      0.258520E-01 eV
Initial charges:             Set automatically (system chrg:   0.000E+00)
Included shells:            Si:  s, p, d
K-points and weights:           1:  0.062500  0.062500  0.062500     0.003906
                                2:  0.062500  0.062500  0.187500     0.003906
                                3:  0.062500  0.062500  0.312500     0.003906
                                4:  0.062500  0.062500  0.437500     0.003906
                                5:  0.062500  0.062500  0.562500     0.003906
                                6:  0.062500  0.062500  0.687500     0.003906
                                7:  0.062500  0.062500  0.812500     0.003906
                                8:  0.062500  0.062500  0.937500     0.003906
                                9:  0.062500  0.187500  0.062500     0.003906
                               10:  0.062500  0.187500  0.187500     0.003906
                               11:  0.062500  0.187500  0.312500     0.003906
                               12:  0.062500  0.187500  0.437500     0.003906
                               13:  0.062500  0.187500  0.562500     0.003906
                               14:  0.062500  0.187500  0.687500     0.003906
                               15:  0.062500  0.187500  0.812500     0.003906
                               16:  0.062500  0.187500  0.937500     0.003906
                               17:  0.062500  0.312500  0.062500     0.003906
                               18:  0.062500  0.312500  0.187500     0.003906
                               19:  0.062500  0.312500  0.312500     0.003906
                               20:  0.062500  0.312500  0.437500     0.003906
                               21:  0.062500  0.312500  0.562500     0.003906
                               22:  0.062500  0.312500  0.687500     0.003906
                               23:  0.062500  0.312500  0.812500     0.003906
                               24:  0.062500  0.312500  0.937500     0.003906
                               25:  0.062500  0.437500  0.062500     0.003906
                               26:  0.062500  0.437500  0.187500     0.003906
                               27:  0.062500  0.437500  0.312500     0.003906
                               28:  0.062500  0.437500  0.437500     0.003906
                               29:  0.062500  0.437500  0.562500     0.003906
                               30:  0.062500  0.437500  0.687500     0.003906
                               31:  0.062500  0.437500  0.812500     0.003906
                               32:  0.062500  0.437500  0.937500     0.003906
                               33:  0.062500  0.562500  0.062500     0.003906
                               34:  0.062500  0.562500  0.187500     0.003906
                               35:  0.062500  0.562500  0.312500     0.003906
                               36:  0.062500  0.562500  0.437500     0.003906
                               37:  0.062500  0.562500  0.562500     0.003906
                               38:  0.062500  0.562500  0.687500     0.003906
                               39:  0.062500  0.562500  0.812500     0.003906
                               40:  0.062500  0.562500  0.937500     0.003906
                               41:  0.062500  0.687500  0.062500     0.003906
                               42:  0.062500  0.687500  0.187500     0.003906
                               43:  0.062500  0.687500  0.312500     0.003906
                               44:  0.062500  0.687500  0.437500     0.003906
                               45:  0.062500  0.687500  0.562500     0.003906
                               46:  0.062500  0.687500  0.687500     0.003906
                               47:  0.062500  0.687500  0.812500     0.003906
                               48:  0.062500  0.687500  0.937500     0.003906
                               49:  0.062500  0.812500  0.062500     0.003906
                               50:  0.062500  0.812500  0.187500     0.003906
                               51:  0.062500  0.812500  0.312500     0.003906
                               52:  0.062500  0.812500  0.437500     0.003906
                               53:  0.062500  0.812500  0.562500     0.003906
                               54:  0.062500  0.812500  0.687500     0.003906
                               55:  0.062500  0.812500  0.812500     0.003906
                               56:  0.062500  0.812500  0.937500     0.003906
                               57:  0.062500  0.937500  0.062500     0.003906
                               58:  0.062500  0.937500  0.187500     0.003906
                               59:  0.062500  0.937500  0.312500     0.003906
                               60:  0.062500  0.937500  0.437500     0.003906
                               61:  0.062500  0.937500  0.562500     0.003906
                               62:  0.062500  0.937500  0.687500     0.003906
                               63:  0.062500  0.937500  0.812500     0.003906
                               64:  0.062500  0.937500  0.937500     0.003906
                               65:  0.187500  0.062500  0.062500     0.003906
                               66:  0.187500  0.062500  0.187500     0.003906
                               67:  0.187500  0.062500  0.312500     0.003906
                               68:  0.187500  0.062500  0.437500     0.003906
                               69:  0.187500  0.062500  0.562500     0.003906
                               70:  0.187500  0.062500  0.687500     0.003906
                               71:  0.187500  0.062500  0.812500     0.003906
                               72:  0.187500  0.062500  0.937500     0.003906
                               73:  0.187500  0.187500  0.062500     0.003906
                               74:  0.187500  0.187500  0.187500     0.003906
                               75:  0.187500  0.187500  0.312500     0.003906
                               76:  0.187500  0.187500  0.437500     0.003906
                               77:  0.187500  0.187500  0.562500     0.003906
                               78:  0.187500  0.187500  0.687500     0.003906
                               79:  0.187500  0.187500  0.812500     0.003906
                               80:  0.187500  0.187500  0.937500     0.003906
                               81:  0.187500  0.312500  0.062500     0.003906
                               82:  0.187500  0.312500  0.187500     0.003906
                               83:  0.187500  0.312500  0.312500     0.003906
                               84:  0.187500  0.312500  0.437500     0.003906
                               85:  0.187500  0.312500  0.562500     0.003906
                               86:  0.187500  0.312500  0.687500     0.003906
                               87:  0.187500  0.312500  0.812500     0.003906
                               88:  0.187500  0.312500  0.937500     0.003906
                               89:  0.187500  0.437500  0.062500     0.003906
                               90:  0.187500  0.437500  0.187500     0.003906
                               91:  0.187500  0.437500  0.312500     0.003906
                               92:  0.187500  0.437500  0.437500     0.003906
                               93:  0.187500  0.437500  0.562500     0.003906
                               94:  0.187500  0.437500  0.687500     0.003906
                               95:  0.187500  0.437500  0.812500     0.003906
                               96:  0.187500  0.437500  0.937500     0.003906
                               97:  0.187500  0.562500  0.062500     0.003906
                               98:  0.187500  0.562500  0.187500     0.003906
                               99:  0.187500  0.562500  0.312500     0.003906
                              100:  0.187500  0.562500  0.437500     0.003906
                              101:  0.187500  0.562500  0.562500     0.003906
                              102:  0.187500  0.562500  0.687500     0.003906
                              103:  0.187500  0.562500  0.812500     0.003906
                              104:  0.187500  0.562500  0.937500     0.003906
                              105:  0.187500  0.687500  0.062500     0.003906
                              106:  0.187500  0.687500  0.187500     0.003906
                              107:  0.187500  0.687500  0.312500     0.003906
                              108:  0.187500  0.687500  0.437500     0.003906
                              109:  0.187500  0.687500  0.562500     0.003906
                              110:  0.187500  0.687500  0.687500     0.003906
                              111:  0.187500  0.687500  0.812500     0.003906
                              112:  0.187500  0.687500  0.937500     0.003906
                              113:  0.187500  0.812500  0.062500     0.003906
                              114:  0.187500  0.812500  0.187500     0.003906
                              115:  0.187500  0.812500  0.312500     0.003906
                              116:  0.187500  0.812500  0.437500     0.003906
                              117:  0.187500  0.812500  0.562500     0.003906
                              118:  0.187500  0.812500  0.687500     0.003906
                              119:  0.187500  0.812500  0.812500     0.003906
                              120:  0.187500  0.812500  0.937500     0.003906
                              121:  0.187500  0.937500  0.062500     0.003906
                              122:  0.187500  0.937500  0.187500     0.003906
                              123:  0.187500  0.937500  0.312500     0.003906
                              124:  0.187500  0.937500  0.437500     0.003906
                              125:  0.187500  0.937500  0.562500     0.003906
                              126:  0.187500  0.937500  0.687500     0.003906
                              127:  0.187500  0.937500  0.812500     0.003906
                              128:  0.187500  0.937500  0.937500     0.003906
                              129:  0.312500  0.062500  0.062500     0.003906
                              130:  0.312500  0.062500  0.187500     0.003906
                              131:  0.312500  0.062500  0.312500     0.003906
                              132:  0.312500  0.062500  0.437500     0.003906
                              133:  0.312500  0.062500  0.562500     0.003906
                              134:  0.312500  0.062500  0.687500     0.003906
                              135:  0.312500  0.062500  0.812500     0.003906
                              136:  0.312500  0.062500  0.937500     0.003906
                              137:  0.312500  0.187500  0.062500     0.003906
                              138:  0.312500  0.187500  0.187500     0.003906
                              139:  0.312500  0.187500  0.312500     0.003906
                              140:  0.312500  0.187500  0.437500     0.003906
                              141:  0.312500  0.187500  0.562500     0.003906
                              142:  0.312500  0.187500  0.687500     0.003906
                              143:  0.312500  0.187500  0.812500     0.003906
                              144:  0.312500  0.187500  0.937500     0.003906
                              145:  0.312500  0.312500  0.062500     0.003906
                              146:  0.312500  0.312500  0.187500     0.003906
                              147:  0.312500  0.312500  0.312500     0.003906
                              148:  0.312500  0.312500  0.437500     0.003906
                              149:  0.312500  0.312500  0.562500     0.003906
                              150:  0.312500  0.312500  0.687500     0.003906
                              151:  0.312500  0.312500  0.812500     0.003906
                              152:  0.312500  0.312500  0.937500     0.003906
                              153:  0.312500  0.437500  0.062500     0.003906
                              154:  0.312500  0.437500  0.187500     0.003906
                              155:  0.312500  0.437500  0.312500     0.003906
                              156:  0.312500  0.437500  0.437500     0.003906
                              157:  0.312500  0.437500  0.562500     0.003906
                              158:  0.312500  0.437500  0.687500     0.003906
                              159:  0.312500  0.437500  0.812500     0.003906
                              160:  0.312500  0.437500  0.937500     0.003906
                              161:  0.312500  0.562500  0.062500     0.003906
                              162:  0.312500  0.562500  0.187500     0.003906
                              163:  0.312500  0.562500  0.312500     0.003906
                              164:  0.312500  0.562500  0.437500     0.003906
                              165:  0.312500  0.562500  0.562500     0.003906
                              166:  0.312500  0.562500  0.687500     0.003906
                              167:  0.312500  0.562500  0.812500     0.003906
                              168:  0.312500  0.562500  0.937500     0.003906
                              169:  0.312500  0.687500  0.062500     0.003906
                              170:  0.312500  0.687500  0.187500     0.003906
                              171:  0.312500  0.687500  0.312500     0.003906
                              172:  0.312500  0.687500  0.437500     0.003906
                              173:  0.312500  0.687500  0.562500     0.003906
                              174:  0.312500  0.687500  0.687500     0.003906
                              175:  0.312500  0.687500  0.812500     0.003906
                              176:  0.312500  0.687500  0.937500     0.003906
                              177:  0.312500  0.812500  0.062500     0.003906
                              178:  0.312500  0.812500  0.187500     0.003906
                              179:  0.312500  0.812500  0.312500     0.003906
                              180:  0.312500  0.812500  0.437500     0.003906
                              181:  0.312500  0.812500  0.562500     0.003906
                              182:  0.312500  0.812500  0.687500     0.003906
                              183:  0.312500  0.812500  0.812500     0.003906
                              184:  0.312500  0.812500  0.937500     0.003906
                              185:  0.312500  0.937500  0.062500     0.003906
                              186:  0.312500  0.937500  0.187500     0.003906
                              187:  0.312500  0.937500  0.312500     0.003906
                              188:  0.312500  0.937500  0.437500     0.003906
                              189:  0.312500  0.937500  0.562500     0.003906
                              190:  0.312500  0.937500  0.687500     0.003906
                              191:  0.312500  0.937500  0.812500     0.003906
                              192:  0.312500  0.937500  0.937500     0.003906
                              193:  0.437500  0.062500  0.062500     0.003906
                              194:  0.437500  0.062500  0.187500     0.003906
                              195:  0.437500  0.062500  0.312500     0.003906
                              196:  0.437500  0.062500  0.437500     0.003906
                              197:  0.437500  0.062500  0.562500     0.003906
                              198:  0.437500  0.062500  0.687500     0.003906
                              199:  0.437500  0.062500  0.812500     0.003906
                              200:  0.437500  0.062500  0.937500     0.003906
                              201:  0.437500  0.187500  0.062500     0.003906
                              202:  0.437500  0.187500  0.187500     0.003906
                              203:  0.437500  0.187500  0.312500     0.003906
                              204:  0.437500  0.187500  0.437500     0.003906
                              205:  0.437500  0.187500  0.562500     0.003906
                              206:  0.437500  0.187500  0.687500     0.003906
                              207:  0.437500  0.187500  0.812500     0.003906
                              208:  0.437500  0.187500  0.937500     0.003906
                              209:  0.437500  0.312500  0.062500     0.003906
                              210:  0.437500  0.312500  0.187500     0.003906
                              211:  0.437500  0.312500  0.312500     0.003906
                              212:  0.437500  0.312500  0.437500     0.003906
                              213:  0.437500  0.312500  0.562500     0.003906
                              214:  0.437500  0.312500  0.687500     0.003906
                              215:  0.437500  0.312500  0.812500     0.003906
                              216:  0.437500  0.312500  0.937500     0.003906
                              217:  0.437500  0.437500  0.062500     0.003906
                              218:  0.437500  0.437500  0.187500     0.003906
                              219:  0.437500  0.437500  0.312500     0.003906
                              220:  0.437500  0.437500  0.437500     0.003906
                              221:  0.437500  0.437500  0.562500     0.003906
                              222:  0.437500  0.437500  0.687500     0.003906
                              223:  0.437500  0.437500  0.812500     0.003906
                              224:  0.437500  0.437500  0.937500     0.003906
                              225:  0.437500  0.562500  0.062500     0.003906
                              226:  0.437500  0.562500  0.187500     0.003906
                              227:  0.437500  0.562500  0.312500     0.003906
                              228:  0.437500  0.562500  0.437500     0.003906
                              229:  0.437500  0.562500  0.562500     0.003906
                              230:  0.437500  0.562500  0.687500     0.003906
                              231:  0.437500  0.562500  0.812500     0.003906
                              232:  0.437500  0.562500  0.937500     0.003906
                              233:  0.437500  0.687500  0.062500     0.003906
                              234:  0.437500  0.687500  0.187500     0.003906
                              235:  0.437500  0.687500  0.312500     0.003906
                              236:  0.437500  0.687500  0.437500     0.003906
                              237:  0.437500  0.687500  0.562500     0.003906
                              238:  0.437500  0.687500  0.687500     0.003906
                              239:  0.437500  0.687500  0.812500     0.003906
                              240:  0.437500  0.687500  0.937500     0.003906
                              241:  0.437500  0.812500  0.062500     0.003906
                              242:  0.437500  0.812500  0.187500     0.003906
                              243:  0.437500  0.812500  0.312500     0.003906
                              244:  0.437500  0.812500  0.437500     0.003906
                              245:  0.437500  0.812500  0.562500     0.003906
                              246:  0.437500  0.812500  0.687500     0.003906
                              247:  0.437500  0.812500  0.812500     0.003906
                              248:  0.437500  0.812500  0.937500     0.003906
                              249:  0.437500  0.937500  0.062500     0.003906
                              250:  0.437500  0.937500  0.187500     0.003906
                              251:  0.437500  0.937500  0.312500     0.003906
                              252:  0.437500  0.937500  0.437500     0.003906
                              253:  0.437500  0.937500  0.562500     0.003906
                              254:  0.437500  0.937500  0.687500     0.003906
                              255:  0.437500  0.937500  0.812500     0.003906
                              256:  0.437500  0.937500  0.937500     0.003906

K-points in absolute space:     1:  0.006094  0.006094  0.006094
                                2:  0.018282 -0.006094  0.018282
                                3:  0.030471 -0.018282  0.030471
                                4:  0.042659 -0.030471  0.042659
                                5:  0.054847 -0.042659  0.054847
                                6:  0.067036 -0.054847  0.067036
                                7:  0.079224 -0.067036  0.079224
                                8:  0.091412 -0.079224  0.091412
                                9: -0.006094  0.018282  0.018282
                               10:  0.006094  0.006094  0.030471
                               11:  0.018282 -0.006094  0.042659
                               12:  0.030471 -0.018282  0.054847
                               13:  0.042659 -0.030471  0.067036
                               14:  0.054847 -0.042659  0.079224
                               15:  0.067036 -0.054847  0.091412
                               16:  0.079224 -0.067036  0.103601
                               17: -0.018282  0.030471  0.030471
                               18: -0.006094  0.018282  0.042659
                               19:  0.006094  0.006094  0.054847
                               20:  0.018282 -0.006094  0.067036
                               21:  0.030471 -0.018282  0.079224
                               22:  0.042659 -0.030471  0.091412
                               23:  0.054847 -0.042659  0.103601
                               24:  0.067036 -0.054847  0.115789
                               25: -0.030471  0.042659  0.042659
                               26: -0.018282  0.030471  0.054847
                               27: -0.006094  0.018282  0.067036
                               28:  0.006094  0.006094  0.079224
                               29:  0.018282 -0.006094  0.091412
                               30:  0.030471 -0.018282  0.103601
                               31:  0.042659 -0.030471  0.115789
                               32:  0.054847 -0.042659  0.127977
                               33: -0.042659  0.054847  0.054847
                               34: -0.030471  0.042659  0.067036
                               35: -0.018282  0.030471  0.079224
                               36: -0.006094  0.018282  0.091412
                               37:  0.006094  0.006094  0.103601
                               38:  0.018282 -0.006094  0.115789
                               39:  0.030471 -0.018282  0.127977
                               40:  0.042659 -0.030471  0.140166
                               41: -0.054847  0.067036  0.067036
                               42: -0.042659  0.054847  0.079224
                               43: -0.030471  0.042659  0.091412
                               44: -0.018282  0.030471  0.103601
                               45: -0.006094  0.018282  0.115789
                               46:  0.006094  0.006094  0.127977
                               47:  0.018282 -0.006094  0.140166
                               48:  0.030471 -0.018282  0.152354
                               49: -0.067036  0.079224  0.079224
                               50: -0.054847  0.067036  0.091412
                               51: -0.042659  0.054847  0.103601
                               52: -0.030471  0.042659  0.115789
                               53: -0.018282  0.030471  0.127977
                               54: -0.006094  0.018282  0.140166
                               55:  0.006094  0.006094  0.152354
                               56:  0.018282 -0.006094  0.164542
                               57: -0.079224  0.091412  0.091412
                               58: -0.067036  0.079224  0.103601
                               59: -0.054847  0.067036  0.115789
                               60: -0.042659  0.054847  0.127977
                               61: -0.030471  0.042659  0.140166
                               62: -0.018282  0.030471  0.152354
                               63: -0.006094  0.018282  0.164542
                               64:  0.006094  0.006094  0.176731
                               65:  0.018282  0.018282 -0.006094
                               66:  0.030471  0.006094  0.006094
                               67:  0.042659 -0.006094  0.018282
                               68:  0.054847 -0.018282  0.030471
                               69:  0.067036 -0.030471  0.042659
                               70:  0.079224 -0.042659  0.054847
                               71:  0.091412 -0.054847  0.067036
                               72:  0.103601 -0.067036  0.079224
                               73:  0.006094  0.030471  0.006094
                               74:  0.018282  0.018282  0.018282
                               75:  0.030471  0.006094  0.030471
                               76:  0.042659 -0.006094  0.042659
                               77:  0.054847 -0.018282  0.054847
                               78:  0.067036 -0.030471  0.067036
                               79:  0.079224 -0.042659  0.079224
                               80:  0.091412 -0.054847  0.091412
                               81: -0.006094  0.042659  0.018282
                               82:  0.006094  0.030471  0.030471
                               83:  0.018282  0.018282  0.042659
                               84:  0.030471  0.006094  0.054847
                               85:  0.042659 -0.006094  0.067036
                               86:  0.054847 -0.018282  0.079224
                               87:  0.067036 -0.030471  0.091412
                               88:  0.079224 -0.042659  0.103601
                               89: -0.018282  0.054847  0.030471
                               90: -0.006094  0.042659  0.042659
                               91:  0.006094  0.030471  0.054847
                               92:  0.018282  0.018282  0.067036
                               93:  0.030471  0.006094  0.079224
                               94:  0.042659 -0.006094  0.091412
                               95:  0.054847 -0.018282  0.103601
                               96:  0.067036 -0.030471  0.115789
                               97: -0.030471  0.067036  0.042659
                               98: -0.018282  0.054847  0.054847
                               99: -0.006094  0.042659  0.067036
                              100:  0.006094  0.030471  0.079224
                              101:  0.018282  0.018282  0.091412
                              102:  0.030471  0.006094  0.103601
                              103:  0.042659 -0.006094  0.115789
                              104:  0.054847 -0.018282  0.127977
                              105: -0.042659  0.079224  0.054847
                              106: -0.030471  0.067036  0.067036
                              107: -0.018282  0.054847  0.079224
                              108: -0.006094  0.042659  0.091412
                              109:  0.006094  0.030471  0.103601
                              110:  0.018282  0.018282  0.115789
                              111:  0.030471  0.006094  0.127977
                              112:  0.042659 -0.006094  0.140166
                              113: -0.054847  0.091412  0.067036
                              114: -0.042659  0.079224  0.079224
                              115: -0.030471  0.067036  0.091412
                              116: -0.018282  0.054847  0.103601
                              117: -0.006094  0.042659  0.115789
                              118:  0.006094  0.030471  0.127977
                              119:  0.018282  0.018282  0.140166
                              120:  0.030471  0.006094  0.152354
                              121: -0.067036  0.103601  0.079224
                              122: -0.054847  0.091412  0.091412
                              123: -0.042659  0.079224  0.103601
                              124: -0.030471  0.067036  0.115789
                              125: -0.018282  0.054847  0.127977
                              126: -0.006094  0.042659  0.140166
                              127:  0.006094  0.030471  0.152354
                              128:  0.018282  0.018282  0.164542
                              129:  0.030471  0.030471 -0.018282
                              130:  0.042659  0.018282 -0.006094
                              131:  0.054847  0.006094  0.006094
                              132:  0.067036 -0.006094  0.018282
                              133:  0.079224 -0.018282  0.030471
                              134:  0.091412 -0.030471  0.042659
                              135:  0.103601 -0.042659  0.054847
                              136:  0.115789 -0.054847  0.067036
                              137:  0.018282  0.042659 -0.006094
                              138:  0.030471  0.030471  0.006094
                              139:  0.042659  0.018282  0.018282
                              140:  0.054847  0.006094  0.030471
                              141:  0.067036 -0.006094  0.042659
                              142:  0.079224 -0.018282  0.054847
                              143:  0.091412 -0.030471  0.067036
                              144:  0.103601 -0.042659  0.079224
                              145:  0.006094  0.054847  0.006094
                              146:  0.018282  0.042659  0.018282
                              147:  0.030471  0.030471  0.030471
                              148:  0.042659  0.018282  0.042659
                              149:  0.054847  0.006094  0.054847
                              150:  0.067036 -0.006094  0.067036
                              151:  0.079224 -0.018282  0.079224
                              152:  0.091412 -0.030471  0.091412
                              153: -0.006094  0.067036  0.018282
                              154:  0.006094  0.054847  0.030471
                              155:  0.018282  0.042659  0.042659
                              156:  0.030471  0.030471  0.054847
                              157:  0.042659  0.018282  0.067036
                              158:  0.054847  0.006094  0.079224
                              159:  0.067036 -0.006094  0.091412
                              160:  0.079224 -0.018282  0.103601
                              161: -0.018282  0.079224  0.030471
                              162: -0.006094  0.067036  0.042659
                              163:  0.006094  0.054847  0.054847
                              164:  0.018282  0.042659  0.067036
                              165:  0.030471  0.030471  0.079224
                              166:  0.042659  0.018282  0.091412
                              167:  0.054847  0.006094  0.103601
                              168:  0.067036 -0.006094  0.115789
                              169: -0.030471  0.091412  0.042659
                              170: -0.018282  0.079224  0.054847
                              171: -0.006094  0.067036  0.067036
                              172:  0.006094  0.054847  0.079224
                              173:  0.018282  0.042659  0.091412
                              174:  0.030471  0.030471  0.103601
                              175:  0.042659  0.018282  0.115789
                              176:  0.054847  0.006094  0.127977
                              177: -0.042659  0.103601  0.054847
                              178: -0.030471  0.091412  0.067036
                              179: -0.018282  0.079224  0.079224
                              180: -0.006094  0.067036  0.091412
                              181:  0.006094  0.054847  0.103601
                              182:  0.018282  0.042659  0.115789
                              183:  0.030471  0.030471  0.127977
                              184:  0.042659  0.018282  0.140166
                              185: -0.054847  0.115789  0.067036
                              186: -0.042659  0.103601  0.079224
                              187: -0.030471  0.091412  0.091412
                              188: -0.018282  0.079224  0.103601
                              189: -0.006094  0.067036  0.115789
                              190:  0.006094  0.054847  0.127977
                              191:  0.018282  0.042659  0.140166
                              192:  0.030471  0.030471  0.152354
                              193:  0.042659  0.042659 -0.030471
                              194:  0.054847  0.030471 -0.018282
                              195:  0.067036  0.018282 -0.006094
                              196:  0.079224  0.006094  0.006094
                              197:  0.091412 -0.006094  0.018282
                              198:  0.103601 -0.018282  0.030471
                              199:  0.115789 -0.030471  0.042659
                              200:  0.127977 -0.042659  0.054847
                              201:  0.030471  0.054847 -0.018282
                              202:  0.042659  0.042659 -0.006094
                              203:  0.054847  0.030471  0.006094
                              204:  0.067036  0.018282  0.018282
                              205:  0.079224  0.006094  0.030471
                              206:  0.091412 -0.006094  0.042659
                              207:  0.103601 -0.018282  0.054847
                              208:  0.115789 -0.030471  0.067036
                              209:  0.018282  0.067036 -0.006094
                              210:  0.030471  0.054847  0.006094
                              211:  0.042659  0.042659  0.018282
                              212:  0.054847  0.030471  0.030471
                              213:  0.067036  0.018282  0.042659
                              214:  0.079224  0.006094  0.054847
                              215:  0.091412 -0.006094  0.067036
                              216:  0.103601 -0.018282  0.079224
                              217:  0.006094  0.079224  0.006094
                              218:  0.018282  0.067036  0.018282
                              219:  0.030471  0.054847  0.030471
                              220:  0.042659  0.042659  0.042659
                              221:  0.054847  0.030471  0.054847
                              222:  0.067036  0.018282  0.067036
                              223:  0.079224  0.006094  0.079224
                              224:  0.091412 -0.006094  0.091412
                              225: -0.006094  0.091412  0.018282
                              226:  0.006094  0.079224  0.030471
                              227:  0.018282  0.067036  0.042659
                              228:  0.030471  0.054847  0.054847
                              229:  0.042659  0.042659  0.067036
                              230:  0.054847  0.030471  0.079224
                              231:  0.067036  0.018282  0.091412
                              232:  0.079224  0.006094  0.103601
                              233: -0.018282  0.103601  0.030471
                              234: -0.006094  0.091412  0.042659
                              235:  0.006094  0.079224  0.054847
                              236:  0.018282  0.067036  0.067036
                              237:  0.030471  0.054847  0.079224
                              238:  0.042659  0.042659  0.091412
                              239:  0.054847  0.030471  0.103601
                              240:  0.067036  0.018282  0.115789
                              241: -0.030471  0.115789  0.042659
                              242: -0.018282  0.103601  0.054847
                              243: -0.006094  0.091412  0.067036
                              244:  0.006094  0.079224  0.079224
                              245:  0.018282  0.067036  0.091412
                              246:  0.030471  0.054847  0.103601
                              247:  0.042659  0.042659  0.115789
                              248:  0.054847  0.030471  0.127977
                              249: -0.042659  0.127977  0.054847
                              250: -0.030471  0.115789  0.067036
                              251: -0.018282  0.103601  0.079224
                              252: -0.006094  0.091412  0.091412
                              253:  0.006094  0.079224  0.103601
                              254:  0.018282  0.067036  0.115789
                              255:  0.030471  0.054847  0.127977
                              256:  0.042659  0.042659  0.140166

Extra options:
                             Mulliken analysis
                             Eigenvector printing

--------------------------------------------------------------------------------

***  Geometry step: 0

 iSCC Total electronic   Diff electronic      SCC error    
    1    0.00000000E+00    0.00000000E+00    0.64140483E+00
    2   -0.36342542E+01   -0.36342542E+01    0.50983546E+00
    3   -0.36345040E+01   -0.24979505E-03    0.38415114E-01
    4   -0.36347645E+01   -0.26047315E-03    0.52134177E-02
    5   -0.36347954E+01   -0.30905219E-04    0.29919208E-05
>> Charges saved for restart in charges.bin

Total Energy:                       -3.6347959749 H          -98.9078 eV
Extrapolated to 0K:                 -3.6347959749 H          -98.9078 eV
Total Mermin free energy:           -3.6347959749 H          -98.9078 eV
Force related energy:               -3.6347959749 H          -98.9078 eV


--------------------------------------------------------------------------------
DFTB+ running times                          cpu [s]             wall clock [s]
--------------------------------------------------------------------------------
Pre-SCC initialisation                 +       0.23 (  1.8%)       0.03 (  2.4%)
SCC                                    +      12.88 ( 96.9%)       0.87 ( 84.3%)
Post-SCC processing                    +       0.18 (  1.4%)       0.14 ( 13.2%)
--------------------------------------------------------------------------------
Missing                                +       0.00 (  0.0%)       0.00 (  0.1%)
Total                                  =      13.30 (100.0%)       1.03 (100.0%)
--------------------------------------------------------------------------------
